+ 0.2 0 1 cbr 500 ------- 0 0.0 2.0 0 0
- 0.2 0 1 cbr 500 ------- 0 0.0 2.0 0 0
+ 0.205 0 1 cbr 500 ------- 0 0.0 2.0 1 1
- 0.208 0 1 cbr 500 ------- 0 0.0 2.0 1 1
+ 0.21 0 1 cbr 500 ------- 0 0.0 2.0 2 2
+ 0.215 0 1 cbr 500 ------- 0 0.0 2.0 3 3
- 0.216 0 1 cbr 500 ------- 0 0.0 2.0 2 2
r 0.218 0 1 cbr 500 ------- 0 0.0 2.0 0 0
+ 0.218 1 2 cbr 500 ------- 0 0.0 2.0 0 0
- 0.218 1 2 cbr 500 ------- 0 0.0 2.0 0 0
+ 0.22 0 1 cbr 500 ------- 0 0.0 2.0 4 4
- 0.224 0 1 cbr 500 ------- 0 0.0 2.0 3 3
+ 0.225 0 1 cbr 500 ------- 0 0.0 2.0 5 5
r 0.226 0 1 cbr 500 ------- 0 0.0 2.0 1 1
+ 0.226 1 2 cbr 500 ------- 0 0.0 2.0 1 1
- 0.226 1 2 cbr 500 ------- 0 0.0 2.0 1 1
+ 0.23 0 1 cbr 500 ------- 0 0.0 2.0 6 6
- 0.232 0 1 cbr 500 ------- 0 0.0 2.0 4 4
r 0.234 0 1 cbr 500 ------- 0 0.0 2.0 2 2
+ 0.234 1 2 cbr 500 ------- 0 0.0 2.0 2 2
- 0.234 1 2 cbr 500 ------- 0 0.0 2.0 2 2
+ 0.235 0 1 cbr 500 ------- 0 0.0 2.0 7 7
r 0.235813 1 2 cbr 500 ------- 0 0.0 2.0 0 0
- 0.24 0 1 cbr 500 ------- 0 0.0 2.0 5 5
+ 0.24 0 1 cbr 500 ------- 0 0.0 2.0 8 8
r 0.242 0 1 cbr 500 ------- 0 0.0 2.0 3 3
+ 0.242 1 2 cbr 500 ------- 0 0.0 2.0 3 3
- 0.242 1 2 cbr 500 ------- 0 0.0 2.0 3 3
r 0.243813 1 2 cbr 500 ------- 0 0.0 2.0 1 1
+ 0.245 0 1 cbr 500 ------- 0 0.0 2.0 9 9
- 0.248 0 1 cbr 500 ------- 0 0.0 2.0 6 6
r 0.25 0 1 cbr 500 ------- 0 0.0 2.0 4 4
+ 0.25 1 2 cbr 500 ------- 0 0.0 2.0 4 4
- 0.25 1 2 cbr 500 ------- 0 0.0 2.0 4 4
+ 0.25 0 1 cbr 500 ------- 0 0.0 2.0 10 10
r 0.251813 1 2 cbr 500 ------- 0 0.0 2.0 2 2
+ 0.255 0 1 cbr 500 ------- 0 0.0 2.0 11 11
- 0.256 0 1 cbr 500 ------- 0 0.0 2.0 7 7
r 0.258 0 1 cbr 500 ------- 0 0.0 2.0 5 5
+ 0.258 1 2 cbr 500 ------- 0 0.0 2.0 5 5
- 0.258 1 2 cbr 500 ------- 0 0.0 2.0 5 5
r 0.259813 1 2 cbr 500 ------- 0 0.0 2.0 3 3
+ 0.26 0 1 cbr 500 ------- 0 0.0 2.0 12 12
- 0.264 0 1 cbr 500 ------- 0 0.0 2.0 8 8
+ 0.265 0 1 cbr 500 ------- 0 0.0 2.0 13 13
r 0.266 0 1 cbr 500 ------- 0 0.0 2.0 6 6
+ 0.266 1 2 cbr 500 ------- 0 0.0 2.0 6 6
- 0.266 1 2 cbr 500 ------- 0 0.0 2.0 6 6
r 0.267813 1 2 cbr 500 ------- 0 0.0 2.0 4 4
+ 0.27 0 1 cbr 500 ------- 0 0.0 2.0 14 14
- 0.272 0 1 cbr 500 ------- 0 0.0 2.0 9 9
r 0.274 0 1 cbr 500 ------- 0 0.0 2.0 7 7
+ 0.274 1 2 cbr 500 ------- 0 0.0 2.0 7 7
- 0.274 1 2 cbr 500 ------- 0 0.0 2.0 7 7
+ 0.275 0 1 cbr 500 ------- 0 0.0 2.0 15 15
r 0.275813 1 2 cbr 500 ------- 0 0.0 2.0 5 5
- 0.28 0 1 cbr 500 ------- 0 0.0 2.0 10 10
+ 0.28 0 1 cbr 500 ------- 0 0.0 2.0 16 16
r 0.282 0 1 cbr 500 ------- 0 0.0 2.0 8 8
+ 0.282 1 2 cbr 500 ------- 0 0.0 2.0 8 8
- 0.282 1 2 cbr 500 ------- 0 0.0 2.0 8 8
r 0.283813 1 2 cbr 500 ------- 0 0.0 2.0 6 6
+ 0.285 0 1 cbr 500 ------- 0 0.0 2.0 17 17
- 0.288 0 1 cbr 500 ------- 0 0.0 2.0 11 11
r 0.29 0 1 cbr 500 ------- 0 0.0 2.0 9 9
+ 0.29 1 2 cbr 500 ------- 0 0.0 2.0 9 9
- 0.29 1 2 cbr 500 ------- 0 0.0 2.0 9 9
+ 0.29 0 1 cbr 500 ------- 0 0.0 2.0 18 18
r 0.291813 1 2 cbr 500 ------- 0 0.0 2.0 7 7
+ 0.295 0 1 cbr 500 ------- 0 0.0 2.0 19 19
- 0.296 0 1 cbr 500 ------- 0 0.0 2.0 12 12
r 0.298 0 1 cbr 500 ------- 0 0.0 2.0 10 10
+ 0.298 1 2 cbr 500 ------- 0 0.0 2.0 10 10
- 0.298 1 2 cbr 500 ------- 0 0.0 2.0 10 10
r 0.299813 1 2 cbr 500 ------- 0 0.0 2.0 8 8
+ 0.3 0 1 cbr 500 ------- 0 0.0 2.0 20 20
- 0.304 0 1 cbr 500 ------- 0 0.0 2.0 13 13
+ 0.305 0 1 cbr 500 ------- 0 0.0 2.0 21 21
r 0.306 0 1 cbr 500 ------- 0 0.0 2.0 11 11
+ 0.306 1 2 cbr 500 ------- 0 0.0 2.0 11 11
- 0.306 1 2 cbr 500 ------- 0 0.0 2.0 11 11
r 0.307813 1 2 cbr 500 ------- 0 0.0 2.0 9 9
+ 0.31 0 1 cbr 500 ------- 0 0.0 2.0 22 22
- 0.312 0 1 cbr 500 ------- 0 0.0 2.0 14 14
r 0.314 0 1 cbr 500 ------- 0 0.0 2.0 12 12
+ 0.314 1 2 cbr 500 ------- 0 0.0 2.0 12 12
- 0.314 1 2 cbr 500 ------- 0 0.0 2.0 12 12
+ 0.315 0 1 cbr 500 ------- 0 0.0 2.0 23 23
r 0.315813 1 2 cbr 500 ------- 0 0.0 2.0 10 10
- 0.32 0 1 cbr 500 ------- 0 0.0 2.0 15 15
+ 0.32 0 1 cbr 500 ------- 0 0.0 2.0 24 24
r 0.322 0 1 cbr 500 ------- 0 0.0 2.0 13 13
+ 0.322 1 2 cbr 500 ------- 0 0.0 2.0 13 13
- 0.322 1 2 cbr 500 ------- 0 0.0 2.0 13 13
r 0.323813 1 2 cbr 500 ------- 0 0.0 2.0 11 11
+ 0.325 0 1 cbr 500 ------- 0 0.0 2.0 25 25
- 0.328 0 1 cbr 500 ------- 0 0.0 2.0 16 16
r 0.33 0 1 cbr 500 ------- 0 0.0 2.0 14 14
+ 0.33 1 2 cbr 500 ------- 0 0.0 2.0 14 14
- 0.33 1 2 cbr 500 ------- 0 0.0 2.0 14 14
+ 0.33 0 1 cbr 500 ------- 0 0.0 2.0 26 26
r 0.331813 1 2 cbr 500 ------- 0 0.0 2.0 12 12
+ 0.335 0 1 cbr 500 ------- 0 0.0 2.0 27 27
- 0.336 0 1 cbr 500 ------- 0 0.0 2.0 17 17
r 0.338 0 1 cbr 500 ------- 0 0.0 2.0 15 15
+ 0.338 1 2 cbr 500 ------- 0 0.0 2.0 15 15
- 0.338 1 2 cbr 500 ------- 0 0.0 2.0 15 15
r 0.339813 1 2 cbr 500 ------- 0 0.0 2.0 13 13
+ 0.34 0 1 cbr 500 ------- 0 0.0 2.0 28 28
- 0.344 0 1 cbr 500 ------- 0 0.0 2.0 18 18
+ 0.345 0 1 cbr 500 ------- 0 0.0 2.0 29 29
r 0.346 0 1 cbr 500 ------- 0 0.0 2.0 16 16
+ 0.346 1 2 cbr 500 ------- 0 0.0 2.0 16 16
- 0.346 1 2 cbr 500 ------- 0 0.0 2.0 16 16
r 0.347813 1 2 cbr 500 ------- 0 0.0 2.0 14 14
+ 0.35 0 1 cbr 500 ------- 0 0.0 2.0 30 30
- 0.352 0 1 cbr 500 ------- 0 0.0 2.0 19 19
r 0.354 0 1 cbr 500 ------- 0 0.0 2.0 17 17
+ 0.354 1 2 cbr 500 ------- 0 0.0 2.0 17 17
- 0.354 1 2 cbr 500 ------- 0 0.0 2.0 17 17
+ 0.355 0 1 cbr 500 ------- 0 0.0 2.0 31 31
r 0.355813 1 2 cbr 500 ------- 0 0.0 2.0 15 15
- 0.36 0 1 cbr 500 ------- 0 0.0 2.0 20 20
+ 0.36 0 1 cbr 500 ------- 0 0.0 2.0 32 32
r 0.362 0 1 cbr 500 ------- 0 0.0 2.0 18 18
+ 0.362 1 2 cbr 500 ------- 0 0.0 2.0 18 18
- 0.362 1 2 cbr 500 ------- 0 0.0 2.0 18 18
r 0.363813 1 2 cbr 500 ------- 0 0.0 2.0 16 16
+ 0.365 0 1 cbr 500 ------- 0 0.0 2.0 33 33
- 0.368 0 1 cbr 500 ------- 0 0.0 2.0 21 21
r 0.37 0 1 cbr 500 ------- 0 0.0 2.0 19 19
+ 0.37 1 2 cbr 500 ------- 0 0.0 2.0 19 19
- 0.37 1 2 cbr 500 ------- 0 0.0 2.0 19 19
+ 0.37 0 1 cbr 500 ------- 0 0.0 2.0 34 34
r 0.371813 1 2 cbr 500 ------- 0 0.0 2.0 17 17
+ 0.375 0 1 cbr 500 ------- 0 0.0 2.0 35 35
- 0.376 0 1 cbr 500 ------- 0 0.0 2.0 22 22
r 0.378 0 1 cbr 500 ------- 0 0.0 2.0 20 20
+ 0.378 1 2 cbr 500 ------- 0 0.0 2.0 20 20
- 0.378 1 2 cbr 500 ------- 0 0.0 2.0 20 20
r 0.379813 1 2 cbr 500 ------- 0 0.0 2.0 18 18
+ 0.38 0 1 cbr 500 ------- 0 0.0 2.0 36 36
- 0.384 0 1 cbr 500 ------- 0 0.0 2.0 23 23
+ 0.385 0 1 cbr 500 ------- 0 0.0 2.0 37 37
r 0.386 0 1 cbr 500 ------- 0 0.0 2.0 21 21
+ 0.386 1 2 cbr 500 ------- 0 0.0 2.0 21 21
- 0.386 1 2 cbr 500 ------- 0 0.0 2.0 21 21
r 0.387813 1 2 cbr 500 ------- 0 0.0 2.0 19 19
+ 0.39 0 1 cbr 500 ------- 0 0.0 2.0 38 38
- 0.392 0 1 cbr 500 ------- 0 0.0 2.0 24 24
r 0.394 0 1 cbr 500 ------- 0 0.0 2.0 22 22
+ 0.394 1 2 cbr 500 ------- 0 0.0 2.0 22 22
- 0.394 1 2 cbr 500 ------- 0 0.0 2.0 22 22
+ 0.395 0 1 cbr 500 ------- 0 0.0 2.0 39 39
r 0.395813 1 2 cbr 500 ------- 0 0.0 2.0 20 20
- 0.4 0 1 cbr 500 ------- 0 0.0 2.0 25 25
+ 0.4 0 1 cbr 500 ------- 0 0.0 2.0 40 40
r 0.402 0 1 cbr 500 ------- 0 0.0 2.0 23 23
+ 0.402 1 2 cbr 500 ------- 0 0.0 2.0 23 23
- 0.402 1 2 cbr 500 ------- 0 0.0 2.0 23 23
r 0.403813 1 2 cbr 500 ------- 0 0.0 2.0 21 21
+ 0.405 0 1 cbr 500 ------- 0 0.0 2.0 41 41
- 0.408 0 1 cbr 500 ------- 0 0.0 2.0 26 26
r 0.41 0 1 cbr 500 ------- 0 0.0 2.0 24 24
+ 0.41 1 2 cbr 500 ------- 0 0.0 2.0 24 24
- 0.41 1 2 cbr 500 ------- 0 0.0 2.0 24 24
+ 0.41 0 1 cbr 500 ------- 0 0.0 2.0 42 42
r 0.411813 1 2 cbr 500 ------- 0 0.0 2.0 22 22
+ 0.415 0 1 cbr 500 ------- 0 0.0 2.0 43 43
- 0.416 0 1 cbr 500 ------- 0 0.0 2.0 27 27
r 0.418 0 1 cbr 500 ------- 0 0.0 2.0 25 25
+ 0.418 1 2 cbr 500 ------- 0 0.0 2.0 25 25
- 0.418 1 2 cbr 500 ------- 0 0.0 2.0 25 25
r 0.419813 1 2 cbr 500 ------- 0 0.0 2.0 23 23
+ 0.42 0 1 cbr 500 ------- 0 0.0 2.0 44 44
- 0.424 0 1 cbr 500 ------- 0 0.0 2.0 28 28
+ 0.425 0 1 cbr 500 ------- 0 0.0 2.0 45 45
r 0.426 0 1 cbr 500 ------- 0 0.0 2.0 26 26
+ 0.426 1 2 cbr 500 ------- 0 0.0 2.0 26 26
- 0.426 1 2 cbr 500 ------- 0 0.0 2.0 26 26
r 0.427813 1 2 cbr 500 ------- 0 0.0 2.0 24 24
+ 0.43 0 1 cbr 500 ------- 0 0.0 2.0 46 46
- 0.432 0 1 cbr 500 ------- 0 0.0 2.0 29 29
r 0.434 0 1 cbr 500 ------- 0 0.0 2.0 27 27
+ 0.434 1 2 cbr 500 ------- 0 0.0 2.0 27 27
- 0.434 1 2 cbr 500 ------- 0 0.0 2.0 27 27
+ 0.435 0 1 cbr 500 ------- 0 0.0 2.0 47 47
r 0.435813 1 2 cbr 500 ------- 0 0.0 2.0 25 25
- 0.44 0 1 cbr 500 ------- 0 0.0 2.0 30 30
+ 0.44 0 1 cbr 500 ------- 0 0.0 2.0 48 48
r 0.442 0 1 cbr 500 ------- 0 0.0 2.0 28 28
+ 0.442 1 2 cbr 500 ------- 0 0.0 2.0 28 28
- 0.442 1 2 cbr 500 ------- 0 0.0 2.0 28 28
r 0.443813 1 2 cbr 500 ------- 0 0.0 2.0 26 26
+ 0.445 0 1 cbr 500 ------- 0 0.0 2.0 49 49
- 0.448 0 1 cbr 500 ------- 0 0.0 2.0 31 31
r 0.45 0 1 cbr 500 ------- 0 0.0 2.0 29 29
+ 0.45 1 2 cbr 500 ------- 0 0.0 2.0 29 29
- 0.45 1 2 cbr 500 ------- 0 0.0 2.0 29 29
+ 0.45 0 1 cbr 500 ------- 0 0.0 2.0 50 50
r 0.451813 1 2 cbr 500 ------- 0 0.0 2.0 27 27
+ 0.455 0 1 cbr 500 ------- 0 0.0 2.0 51 51
- 0.456 0 1 cbr 500 ------- 0 0.0 2.0 32 32
r 0.458 0 1 cbr 500 ------- 0 0.0 2.0 30 30
+ 0.458 1 2 cbr 500 ------- 0 0.0 2.0 30 30
- 0.458 1 2 cbr 500 ------- 0 0.0 2.0 30 30
r 0.459813 1 2 cbr 500 ------- 0 0.0 2.0 28 28
+ 0.46 0 1 cbr 500 ------- 0 0.0 2.0 52 52
- 0.464 0 1 cbr 500 ------- 0 0.0 2.0 33 33
+ 0.465 0 1 cbr 500 ------- 0 0.0 2.0 53 53
r 0.466 0 1 cbr 500 ------- 0 0.0 2.0 31 31
+ 0.466 1 2 cbr 500 ------- 0 0.0 2.0 31 31
- 0.466 1 2 cbr 500 ------- 0 0.0 2.0 31 31
r 0.467813 1 2 cbr 500 ------- 0 0.0 2.0 29 29
+ 0.47 0 1 cbr 500 ------- 0 0.0 2.0 54 54
- 0.472 0 1 cbr 500 ------- 0 0.0 2.0 34 34
r 0.474 0 1 cbr 500 ------- 0 0.0 2.0 32 32
+ 0.474 1 2 cbr 500 ------- 0 0.0 2.0 32 32
- 0.474 1 2 cbr 500 ------- 0 0.0 2.0 32 32
+ 0.475 0 1 cbr 500 ------- 0 0.0 2.0 55 55
r 0.475813 1 2 cbr 500 ------- 0 0.0 2.0 30 30
- 0.48 0 1 cbr 500 ------- 0 0.0 2.0 35 35
+ 0.48 0 1 cbr 500 ------- 0 0.0 2.0 56 56
r 0.482 0 1 cbr 500 ------- 0 0.0 2.0 33 33
+ 0.482 1 2 cbr 500 ------- 0 0.0 2.0 33 33
- 0.482 1 2 cbr 500 ------- 0 0.0 2.0 33 33
r 0.483813 1 2 cbr 500 ------- 0 0.0 2.0 31 31
+ 0.485 0 1 cbr 500 ------- 0 0.0 2.0 57 57
- 0.488 0 1 cbr 500 ------- 0 0.0 2.0 36 36
r 0.49 0 1 cbr 500 ------- 0 0.0 2.0 34 34
+ 0.49 1 2 cbr 500 ------- 0 0.0 2.0 34 34
- 0.49 1 2 cbr 500 ------- 0 0.0 2.0 34 34
+ 0.49 0 1 cbr 500 ------- 0 0.0 2.0 58 58
r 0.491813 1 2 cbr 500 ------- 0 0.0 2.0 32 32
+ 0.495 0 1 cbr 500 ------- 0 0.0 2.0 59 59
- 0.496 0 1 cbr 500 ------- 0 0.0 2.0 37 37
r 0.498 0 1 cbr 500 ------- 0 0.0 2.0 35 35
+ 0.498 1 2 cbr 500 ------- 0 0.0 2.0 35 35
- 0.498 1 2 cbr 500 ------- 0 0.0 2.0 35 35
r 0.499813 1 2 cbr 500 ------- 0 0.0 2.0 33 33
+ 0.5 0 1 cbr 500 ------- 0 0.0 2.0 60 60
- 0.504 0 1 cbr 500 ------- 0 0.0 2.0 38 38
+ 0.505 0 1 cbr 500 ------- 0 0.0 2.0 61 61
r 0.506 0 1 cbr 500 ------- 0 0.0 2.0 36 36
+ 0.506 1 2 cbr 500 ------- 0 0.0 2.0 36 36
- 0.506 1 2 cbr 500 ------- 0 0.0 2.0 36 36
r 0.507813 1 2 cbr 500 ------- 0 0.0 2.0 34 34
+ 0.51 0 1 cbr 500 ------- 0 0.0 2.0 62 62
- 0.512 0 1 cbr 500 ------- 0 0.0 2.0 39 39
r 0.514 0 1 cbr 500 ------- 0 0.0 2.0 37 37
+ 0.514 1 2 cbr 500 ------- 0 0.0 2.0 37 37
- 0.514 1 2 cbr 500 ------- 0 0.0 2.0 37 37
+ 0.515 0 1 cbr 500 ------- 0 0.0 2.0 63 63
r 0.515813 1 2 cbr 500 ------- 0 0.0 2.0 35 35
- 0.52 0 1 cbr 500 ------- 0 0.0 2.0 40 40
+ 0.52 0 1 cbr 500 ------- 0 0.0 2.0 64 64
r 0.522 0 1 cbr 500 ------- 0 0.0 2.0 38 38
+ 0.522 1 2 cbr 500 ------- 0 0.0 2.0 38 38
- 0.522 1 2 cbr 500 ------- 0 0.0 2.0 38 38
r 0.523813 1 2 cbr 500 ------- 0 0.0 2.0 36 36
+ 0.525 0 1 cbr 500 ------- 0 0.0 2.0 65 65
- 0.528 0 1 cbr 500 ------- 0 0.0 2.0 41 41
r 0.53 0 1 cbr 500 ------- 0 0.0 2.0 39 39
+ 0.53 1 2 cbr 500 ------- 0 0.0 2.0 39 39
- 0.53 1 2 cbr 500 ------- 0 0.0 2.0 39 39
+ 0.53 0 1 cbr 500 ------- 0 0.0 2.0 66 66
r 0.531813 1 2 cbr 500 ------- 0 0.0 2.0 37 37
+ 0.535 0 1 cbr 500 ------- 0 0.0 2.0 67 67
- 0.536 0 1 cbr 500 ------- 0 0.0 2.0 42 42
r 0.538 0 1 cbr 500 ------- 0 0.0 2.0 40 40
+ 0.538 1 2 cbr 500 ------- 0 0.0 2.0 40 40
- 0.538 1 2 cbr 500 ------- 0 0.0 2.0 40 40
r 0.539813 1 2 cbr 500 ------- 0 0.0 2.0 38 38
+ 0.54 0 1 cbr 500 ------- 0 0.0 2.0 68 68
- 0.544 0 1 cbr 500 ------- 0 0.0 2.0 43 43
+ 0.545 0 1 cbr 500 ------- 0 0.0 2.0 69 69
r 0.546 0 1 cbr 500 ------- 0 0.0 2.0 41 41
+ 0.546 1 2 cbr 500 ------- 0 0.0 2.0 41 41
- 0.546 1 2 cbr 500 ------- 0 0.0 2.0 41 41
r 0.547813 1 2 cbr 500 ------- 0 0.0 2.0 39 39
+ 0.55 0 1 cbr 500 ------- 0 0.0 2.0 70 70
- 0.552 0 1 cbr 500 ------- 0 0.0 2.0 44 44
r 0.554 0 1 cbr 500 ------- 0 0.0 2.0 42 42
+ 0.554 1 2 cbr 500 ------- 0 0.0 2.0 42 42
- 0.554 1 2 cbr 500 ------- 0 0.0 2.0 42 42
+ 0.555 0 1 cbr 500 ------- 0 0.0 2.0 71 71
r 0.555813 1 2 cbr 500 ------- 0 0.0 2.0 40 40
- 0.56 0 1 cbr 500 ------- 0 0.0 2.0 45 45
+ 0.56 0 1 cbr 500 ------- 0 0.0 2.0 72 72
r 0.562 0 1 cbr 500 ------- 0 0.0 2.0 43 43
+ 0.562 1 2 cbr 500 ------- 0 0.0 2.0 43 43
- 0.562 1 2 cbr 500 ------- 0 0.0 2.0 43 43
r 0.563813 1 2 cbr 500 ------- 0 0.0 2.0 41 41
+ 0.565 0 1 cbr 500 ------- 0 0.0 2.0 73 73
- 0.568 0 1 cbr 500 ------- 0 0.0 2.0 46 46
r 0.57 0 1 cbr 500 ------- 0 0.0 2.0 44 44
+ 0.57 1 2 cbr 500 ------- 0 0.0 2.0 44 44
- 0.57 1 2 cbr 500 ------- 0 0.0 2.0 44 44
+ 0.57 0 1 cbr 500 ------- 0 0.0 2.0 74 74
r 0.571813 1 2 cbr 500 ------- 0 0.0 2.0 42 42
+ 0.575 0 1 cbr 500 ------- 0 0.0 2.0 75 75
- 0.576 0 1 cbr 500 ------- 0 0.0 2.0 47 47
r 0.578 0 1 cbr 500 ------- 0 0.0 2.0 45 45
+ 0.578 1 2 cbr 500 ------- 0 0.0 2.0 45 45
- 0.578 1 2 cbr 500 ------- 0 0.0 2.0 45 45
r 0.579813 1 2 cbr 500 ------- 0 0.0 2.0 43 43
+ 0.58 0 1 cbr 500 ------- 0 0.0 2.0 76 76
- 0.584 0 1 cbr 500 ------- 0 0.0 2.0 48 48
+ 0.585 0 1 cbr 500 ------- 0 0.0 2.0 77 77
r 0.586 0 1 cbr 500 ------- 0 0.0 2.0 46 46
+ 0.586 1 2 cbr 500 ------- 0 0.0 2.0 46 46
- 0.586 1 2 cbr 500 ------- 0 0.0 2.0 46 46
r 0.587813 1 2 cbr 500 ------- 0 0.0 2.0 44 44
+ 0.59 0 1 cbr 500 ------- 0 0.0 2.0 78 78
- 0.592 0 1 cbr 500 ------- 0 0.0 2.0 49 49
r 0.594 0 1 cbr 500 ------- 0 0.0 2.0 47 47
+ 0.594 1 2 cbr 500 ------- 0 0.0 2.0 47 47
- 0.594 1 2 cbr 500 ------- 0 0.0 2.0 47 47
+ 0.595 0 1 cbr 500 ------- 0 0.0 2.0 79 79
r 0.595813 1 2 cbr 500 ------- 0 0.0 2.0 45 45
- 0.6 0 1 cbr 500 ------- 0 0.0 2.0 50 50
+ 0.6 0 1 cbr 500 ------- 0 0.0 2.0 80 80
r 0.602 0 1 cbr 500 ------- 0 0.0 2.0 48 48
+ 0.602 1 2 cbr 500 ------- 0 0.0 2.0 48 48
- 0.602 1 2 cbr 500 ------- 0 0.0 2.0 48 48
r 0.603813 1 2 cbr 500 ------- 0 0.0 2.0 46 46
+ 0.605 0 1 cbr 500 ------- 0 0.0 2.0 81 81
- 0.608 0 1 cbr 500 ------- 0 0.0 2.0 51 51
r 0.61 0 1 cbr 500 ------- 0 0.0 2.0 49 49
+ 0.61 1 2 cbr 500 ------- 0 0.0 2.0 49 49
- 0.61 1 2 cbr 500 ------- 0 0.0 2.0 49 49
+ 0.61 0 1 cbr 500 ------- 0 0.0 2.0 82 82
r 0.611813 1 2 cbr 500 ------- 0 0.0 2.0 47 47
+ 0.615 0 1 cbr 500 ------- 0 0.0 2.0 83 83
- 0.616 0 1 cbr 500 ------- 0 0.0 2.0 52 52
r 0.618 0 1 cbr 500 ------- 0 0.0 2.0 50 50
+ 0.618 1 2 cbr 500 ------- 0 0.0 2.0 50 50
- 0.618 1 2 cbr 500 ------- 0 0.0 2.0 50 50
r 0.619813 1 2 cbr 500 ------- 0 0.0 2.0 48 48
+ 0.62 0 1 cbr 500 ------- 0 0.0 2.0 84 84
- 0.624 0 1 cbr 500 ------- 0 0.0 2.0 53 53
+ 0.625 0 1 cbr 500 ------- 0 0.0 2.0 85 85
r 0.626 0 1 cbr 500 ------- 0 0.0 2.0 51 51
+ 0.626 1 2 cbr 500 ------- 0 0.0 2.0 51 51
- 0.626 1 2 cbr 500 ------- 0 0.0 2.0 51 51
r 0.627813 1 2 cbr 500 ------- 0 0.0 2.0 49 49
+ 0.63 0 1 cbr 500 ------- 0 0.0 2.0 86 86
- 0.632 0 1 cbr 500 ------- 0 0.0 2.0 54 54
r 0.634 0 1 cbr 500 ------- 0 0.0 2.0 52 52
+ 0.634 1 2 cbr 500 ------- 0 0.0 2.0 52 52
- 0.634 1 2 cbr 500 ------- 0 0.0 2.0 52 52
+ 0.635 0 1 cbr 500 ------- 0 0.0 2.0 87 87
r 0.635813 1 2 cbr 500 ------- 0 0.0 2.0 50 50
- 0.64 0 1 cbr 500 ------- 0 0.0 2.0 55 55
+ 0.64 0 1 cbr 500 ------- 0 0.0 2.0 88 88
r 0.642 0 1 cbr 500 ------- 0 0.0 2.0 53 53
+ 0.642 1 2 cbr 500 ------- 0 0.0 2.0 53 53
- 0.642 1 2 cbr 500 ------- 0 0.0 2.0 53 53
r 0.643813 1 2 cbr 500 ------- 0 0.0 2.0 51 51
+ 0.645 0 1 cbr 500 ------- 0 0.0 2.0 89 89
- 0.648 0 1 cbr 500 ------- 0 0.0 2.0 56 56
r 0.65 0 1 cbr 500 ------- 0 0.0 2.0 54 54
+ 0.65 1 2 cbr 500 ------- 0 0.0 2.0 54 54
- 0.65 1 2 cbr 500 ------- 0 0.0 2.0 54 54
+ 0.65 0 1 cbr 500 ------- 0 0.0 2.0 90 90
r 0.651813 1 2 cbr 500 ------- 0 0.0 2.0 52 52
+ 0.655 0 1 cbr 500 ------- 0 0.0 2.0 91 91
- 0.656 0 1 cbr 500 ------- 0 0.0 2.0 57 57
r 0.658 0 1 cbr 500 ------- 0 0.0 2.0 55 55
+ 0.658 1 2 cbr 500 ------- 0 0.0 2.0 55 55
- 0.658 1 2 cbr 500 ------- 0 0.0 2.0 55 55
r 0.659813 1 2 cbr 500 ------- 0 0.0 2.0 53 53
+ 0.66 0 1 cbr 500 ------- 0 0.0 2.0 92 92
- 0.664 0 1 cbr 500 ------- 0 0.0 2.0 58 58
+ 0.665 0 1 cbr 500 ------- 0 0.0 2.0 93 93
r 0.666 0 1 cbr 500 ------- 0 0.0 2.0 56 56
+ 0.666 1 2 cbr 500 ------- 0 0.0 2.0 56 56
- 0.666 1 2 cbr 500 ------- 0 0.0 2.0 56 56
r 0.667813 1 2 cbr 500 ------- 0 0.0 2.0 54 54
+ 0.67 0 1 cbr 500 ------- 0 0.0 2.0 94 94
- 0.672 0 1 cbr 500 ------- 0 0.0 2.0 59 59
r 0.674 0 1 cbr 500 ------- 0 0.0 2.0 57 57
+ 0.674 1 2 cbr 500 ------- 0 0.0 2.0 57 57
- 0.674 1 2 cbr 500 ------- 0 0.0 2.0 57 57
+ 0.675 0 1 cbr 500 ------- 0 0.0 2.0 95 95
r 0.675813 1 2 cbr 500 ------- 0 0.0 2.0 55 55
- 0.68 0 1 cbr 500 ------- 0 0.0 2.0 60 60
+ 0.68 0 1 cbr 500 ------- 0 0.0 2.0 96 96
r 0.682 0 1 cbr 500 ------- 0 0.0 2.0 58 58
+ 0.682 1 2 cbr 500 ------- 0 0.0 2.0 58 58
- 0.682 1 2 cbr 500 ------- 0 0.0 2.0 58 58
r 0.683813 1 2 cbr 500 ------- 0 0.0 2.0 56 56
+ 0.685 0 1 cbr 500 ------- 0 0.0 2.0 97 97
- 0.688 0 1 cbr 500 ------- 0 0.0 2.0 61 61
r 0.69 0 1 cbr 500 ------- 0 0.0 2.0 59 59
+ 0.69 1 2 cbr 500 ------- 0 0.0 2.0 59 59
- 0.69 1 2 cbr 500 ------- 0 0.0 2.0 59 59
+ 0.69 0 1 cbr 500 ------- 0 0.0 2.0 98 98
r 0.691813 1 2 cbr 500 ------- 0 0.0 2.0 57 57
+ 0.695 0 1 cbr 500 ------- 0 0.0 2.0 99 99
- 0.696 0 1 cbr 500 ------- 0 0.0 2.0 62 62
r 0.698 0 1 cbr 500 ------- 0 0.0 2.0 60 60
+ 0.698 1 2 cbr 500 ------- 0 0.0 2.0 60 60
- 0.698 1 2 cbr 500 ------- 0 0.0 2.0 60 60
r 0.699813 1 2 cbr 500 ------- 0 0.0 2.0 58 58
+ 0.7 0 1 cbr 500 ------- 0 0.0 2.0 100 100
- 0.704 0 1 cbr 500 ------- 0 0.0 2.0 63 63
+ 0.705 0 1 cbr 500 ------- 0 0.0 2.0 101 101
r 0.706 0 1 cbr 500 ------- 0 0.0 2.0 61 61
+ 0.706 1 2 cbr 500 ------- 0 0.0 2.0 61 61
- 0.706 1 2 cbr 500 ------- 0 0.0 2.0 61 61
r 0.707813 1 2 cbr 500 ------- 0 0.0 2.0 59 59
+ 0.71 0 1 cbr 500 ------- 0 0.0 2.0 102 102
- 0.712 0 1 cbr 500 ------- 0 0.0 2.0 64 64
r 0.714 0 1 cbr 500 ------- 0 0.0 2.0 62 62
+ 0.714 1 2 cbr 500 ------- 0 0.0 2.0 62 62
- 0.714 1 2 cbr 500 ------- 0 0.0 2.0 62 62
+ 0.715 0 1 cbr 500 ------- 0 0.0 2.0 103 103
r 0.715813 1 2 cbr 500 ------- 0 0.0 2.0 60 60
- 0.72 0 1 cbr 500 ------- 0 0.0 2.0 65 65
+ 0.72 0 1 cbr 500 ------- 0 0.0 2.0 104 104
r 0.722 0 1 cbr 500 ------- 0 0.0 2.0 63 63
+ 0.722 1 2 cbr 500 ------- 0 0.0 2.0 63 63
- 0.722 1 2 cbr 500 ------- 0 0.0 2.0 63 63
r 0.723813 1 2 cbr 500 ------- 0 0.0 2.0 61 61
+ 0.725 0 1 cbr 500 ------- 0 0.0 2.0 105 105
- 0.728 0 1 cbr 500 ------- 0 0.0 2.0 66 66
r 0.73 0 1 cbr 500 ------- 0 0.0 2.0 64 64
+ 0.73 1 2 cbr 500 ------- 0 0.0 2.0 64 64
- 0.73 1 2 cbr 500 ------- 0 0.0 2.0 64 64
+ 0.73 0 1 cbr 500 ------- 0 0.0 2.0 106 106
r 0.731813 1 2 cbr 500 ------- 0 0.0 2.0 62 62
+ 0.735 0 1 cbr 500 ------- 0 0.0 2.0 107 107
- 0.736 0 1 cbr 500 ------- 0 0.0 2.0 67 67
r 0.738 0 1 cbr 500 ------- 0 0.0 2.0 65 65
+ 0.738 1 2 cbr 500 ------- 0 0.0 2.0 65 65
- 0.738 1 2 cbr 500 ------- 0 0.0 2.0 65 65
r 0.739813 1 2 cbr 500 ------- 0 0.0 2.0 63 63
+ 0.74 0 1 cbr 500 ------- 0 0.0 2.0 108 108
- 0.744 0 1 cbr 500 ------- 0 0.0 2.0 68 68
+ 0.745 0 1 cbr 500 ------- 0 0.0 2.0 109 109
r 0.746 0 1 cbr 500 ------- 0 0.0 2.0 66 66
+ 0.746 1 2 cbr 500 ------- 0 0.0 2.0 66 66
- 0.746 1 2 cbr 500 ------- 0 0.0 2.0 66 66
r 0.747813 1 2 cbr 500 ------- 0 0.0 2.0 64 64
+ 0.75 0 1 cbr 500 ------- 0 0.0 2.0 110 110
- 0.752 0 1 cbr 500 ------- 0 0.0 2.0 69 69
r 0.754 0 1 cbr 500 ------- 0 0.0 2.0 67 67
+ 0.754 1 2 cbr 500 ------- 0 0.0 2.0 67 67
- 0.754 1 2 cbr 500 ------- 0 0.0 2.0 67 67
+ 0.755 0 1 cbr 500 ------- 0 0.0 2.0 111 111
r 0.755813 1 2 cbr 500 ------- 0 0.0 2.0 65 65
- 0.76 0 1 cbr 500 ------- 0 0.0 2.0 70 70
+ 0.76 0 1 cbr 500 ------- 0 0.0 2.0 112 112
r 0.762 0 1 cbr 500 ------- 0 0.0 2.0 68 68
+ 0.762 1 2 cbr 500 ------- 0 0.0 2.0 68 68
- 0.762 1 2 cbr 500 ------- 0 0.0 2.0 68 68
r 0.763813 1 2 cbr 500 ------- 0 0.0 2.0 66 66
+ 0.765 0 1 cbr 500 ------- 0 0.0 2.0 113 113
- 0.768 0 1 cbr 500 ------- 0 0.0 2.0 71 71
r 0.77 0 1 cbr 500 ------- 0 0.0 2.0 69 69
+ 0.77 1 2 cbr 500 ------- 0 0.0 2.0 69 69
- 0.77 1 2 cbr 500 ------- 0 0.0 2.0 69 69
+ 0.77 0 1 cbr 500 ------- 0 0.0 2.0 114 114
r 0.771813 1 2 cbr 500 ------- 0 0.0 2.0 67 67
+ 0.775 0 1 cbr 500 ------- 0 0.0 2.0 115 115
- 0.776 0 1 cbr 500 ------- 0 0.0 2.0 72 72
r 0.778 0 1 cbr 500 ------- 0 0.0 2.0 70 70
+ 0.778 1 2 cbr 500 ------- 0 0.0 2.0 70 70
- 0.778 1 2 cbr 500 ------- 0 0.0 2.0 70 70
r 0.779813 1 2 cbr 500 ------- 0 0.0 2.0 68 68
+ 0.78 0 1 cbr 500 ------- 0 0.0 2.0 116 116
- 0.784 0 1 cbr 500 ------- 0 0.0 2.0 73 73
+ 0.785 0 1 cbr 500 ------- 0 0.0 2.0 117 117
r 0.786 0 1 cbr 500 ------- 0 0.0 2.0 71 71
+ 0.786 1 2 cbr 500 ------- 0 0.0 2.0 71 71
- 0.786 1 2 cbr 500 ------- 0 0.0 2.0 71 71
r 0.787813 1 2 cbr 500 ------- 0 0.0 2.0 69 69
+ 0.79 0 1 cbr 500 ------- 0 0.0 2.0 118 118
- 0.792 0 1 cbr 500 ------- 0 0.0 2.0 74 74
r 0.794 0 1 cbr 500 ------- 0 0.0 2.0 72 72
+ 0.794 1 2 cbr 500 ------- 0 0.0 2.0 72 72
- 0.794 1 2 cbr 500 ------- 0 0.0 2.0 72 72
+ 0.795 0 1 cbr 500 ------- 0 0.0 2.0 119 119
r 0.795813 1 2 cbr 500 ------- 0 0.0 2.0 70 70
- 0.8 0 1 cbr 500 ------- 0 0.0 2.0 75 75
+ 0.8 0 1 cbr 500 ------- 0 0.0 2.0 120 120
r 0.802 0 1 cbr 500 ------- 0 0.0 2.0 73 73
+ 0.802 1 2 cbr 500 ------- 0 0.0 2.0 73 73
- 0.802 1 2 cbr 500 ------- 0 0.0 2.0 73 73
r 0.803813 1 2 cbr 500 ------- 0 0.0 2.0 71 71
+ 0.805 0 1 cbr 500 ------- 0 0.0 2.0 121 121
- 0.808 0 1 cbr 500 ------- 0 0.0 2.0 76 76
r 0.81 0 1 cbr 500 ------- 0 0.0 2.0 74 74
+ 0.81 1 2 cbr 500 ------- 0 0.0 2.0 74 74
- 0.81 1 2 cbr 500 ------- 0 0.0 2.0 74 74
+ 0.81 0 1 cbr 500 ------- 0 0.0 2.0 122 122
r 0.811813 1 2 cbr 500 ------- 0 0.0 2.0 72 72
+ 0.815 0 1 cbr 500 ------- 0 0.0 2.0 123 123
- 0.816 0 1 cbr 500 ------- 0 0.0 2.0 77 77
r 0.818 0 1 cbr 500 ------- 0 0.0 2.0 75 75
+ 0.818 1 2 cbr 500 ------- 0 0.0 2.0 75 75
- 0.818 1 2 cbr 500 ------- 0 0.0 2.0 75 75
r 0.819813 1 2 cbr 500 ------- 0 0.0 2.0 73 73
+ 0.82 0 1 cbr 500 ------- 0 0.0 2.0 124 124
- 0.824 0 1 cbr 500 ------- 0 0.0 2.0 78 78
+ 0.825 0 1 cbr 500 ------- 0 0.0 2.0 125 125
r 0.826 0 1 cbr 500 ------- 0 0.0 2.0 76 76
+ 0.826 1 2 cbr 500 ------- 0 0.0 2.0 76 76
- 0.826 1 2 cbr 500 ------- 0 0.0 2.0 76 76
r 0.827813 1 2 cbr 500 ------- 0 0.0 2.0 74 74
+ 0.83 0 1 cbr 500 ------- 0 0.0 2.0 126 126
- 0.832 0 1 cbr 500 ------- 0 0.0 2.0 79 79
r 0.834 0 1 cbr 500 ------- 0 0.0 2.0 77 77
+ 0.834 1 2 cbr 500 ------- 0 0.0 2.0 77 77
- 0.834 1 2 cbr 500 ------- 0 0.0 2.0 77 77
+ 0.835 0 1 cbr 500 ------- 0 0.0 2.0 127 127
r 0.835813 1 2 cbr 500 ------- 0 0.0 2.0 75 75
- 0.84 0 1 cbr 500 ------- 0 0.0 2.0 80 80
+ 0.84 0 1 cbr 500 ------- 0 0.0 2.0 128 128
r 0.842 0 1 cbr 500 ------- 0 0.0 2.0 78 78
+ 0.842 1 2 cbr 500 ------- 0 0.0 2.0 78 78
- 0.842 1 2 cbr 500 ------- 0 0.0 2.0 78 78
r 0.843813 1 2 cbr 500 ------- 0 0.0 2.0 76 76
+ 0.845 0 1 cbr 500 ------- 0 0.0 2.0 129 129
- 0.848 0 1 cbr 500 ------- 0 0.0 2.0 81 81
r 0.85 0 1 cbr 500 ------- 0 0.0 2.0 79 79
+ 0.85 1 2 cbr 500 ------- 0 0.0 2.0 79 79
- 0.85 1 2 cbr 500 ------- 0 0.0 2.0 79 79
+ 0.85 0 1 cbr 500 ------- 0 0.0 2.0 130 130
r 0.851813 1 2 cbr 500 ------- 0 0.0 2.0 77 77
+ 0.855 0 1 cbr 500 ------- 0 0.0 2.0 131 131
d 0.855 0 1 cbr 500 ------- 0 0.0 2.0 131 131
- 0.856 0 1 cbr 500 ------- 0 0.0 2.0 82 82
r 0.858 0 1 cbr 500 ------- 0 0.0 2.0 80 80
+ 0.858 1 2 cbr 500 ------- 0 0.0 2.0 80 80
- 0.858 1 2 cbr 500 ------- 0 0.0 2.0 80 80
r 0.859813 1 2 cbr 500 ------- 0 0.0 2.0 78 78
+ 0.86 0 1 cbr 500 ------- 0 0.0 2.0 132 132
- 0.864 0 1 cbr 500 ------- 0 0.0 2.0 83 83
+ 0.865 0 1 cbr 500 ------- 0 0.0 2.0 133 133
r 0.866 0 1 cbr 500 ------- 0 0.0 2.0 81 81
+ 0.866 1 2 cbr 500 ------- 0 0.0 2.0 81 81
- 0.866 1 2 cbr 500 ------- 0 0.0 2.0 81 81
r 0.867813 1 2 cbr 500 ------- 0 0.0 2.0 79 79
+ 0.87 0 1 cbr 500 ------- 0 0.0 2.0 134 134
d 0.87 0 1 cbr 500 ------- 0 0.0 2.0 134 134
- 0.872 0 1 cbr 500 ------- 0 0.0 2.0 84 84
r 0.874 0 1 cbr 500 ------- 0 0.0 2.0 82 82
+ 0.874 1 2 cbr 500 ------- 0 0.0 2.0 82 82
- 0.874 1 2 cbr 500 ------- 0 0.0 2.0 82 82
+ 0.875 0 1 cbr 500 ------- 0 0.0 2.0 135 135
r 0.875813 1 2 cbr 500 ------- 0 0.0 2.0 80 80
- 0.88 0 1 cbr 500 ------- 0 0.0 2.0 85 85
+ 0.88 0 1 cbr 500 ------- 0 0.0 2.0 136 136
r 0.882 0 1 cbr 500 ------- 0 0.0 2.0 83 83
+ 0.882 1 2 cbr 500 ------- 0 0.0 2.0 83 83
- 0.882 1 2 cbr 500 ------- 0 0.0 2.0 83 83
r 0.883813 1 2 cbr 500 ------- 0 0.0 2.0 81 81
+ 0.885 0 1 cbr 500 ------- 0 0.0 2.0 137 137
d 0.885 0 1 cbr 500 ------- 0 0.0 2.0 137 137
- 0.888 0 1 cbr 500 ------- 0 0.0 2.0 86 86
r 0.89 0 1 cbr 500 ------- 0 0.0 2.0 84 84
+ 0.89 1 2 cbr 500 ------- 0 0.0 2.0 84 84
- 0.89 1 2 cbr 500 ------- 0 0.0 2.0 84 84
+ 0.89 0 1 cbr 500 ------- 0 0.0 2.0 138 138
r 0.891813 1 2 cbr 500 ------- 0 0.0 2.0 82 82
+ 0.895 0 1 cbr 500 ------- 0 0.0 2.0 139 139
d 0.895 0 1 cbr 500 ------- 0 0.0 2.0 139 139
- 0.896 0 1 cbr 500 ------- 0 0.0 2.0 87 87
r 0.898 0 1 cbr 500 ------- 0 0.0 2.0 85 85
+ 0.898 1 2 cbr 500 ------- 0 0.0 2.0 85 85
- 0.898 1 2 cbr 500 ------- 0 0.0 2.0 85 85
r 0.899813 1 2 cbr 500 ------- 0 0.0 2.0 83 83
+ 0.9 0 1 cbr 500 ------- 0 0.0 2.0 140 140
- 0.904 0 1 cbr 500 ------- 0 0.0 2.0 88 88
+ 0.905 0 1 cbr 500 ------- 0 0.0 2.0 141 141
r 0.906 0 1 cbr 500 ------- 0 0.0 2.0 86 86
+ 0.906 1 2 cbr 500 ------- 0 0.0 2.0 86 86
- 0.906 1 2 cbr 500 ------- 0 0.0 2.0 86 86
r 0.907813 1 2 cbr 500 ------- 0 0.0 2.0 84 84
+ 0.91 0 1 cbr 500 ------- 0 0.0 2.0 142 142
d 0.91 0 1 cbr 500 ------- 0 0.0 2.0 142 142
- 0.912 0 1 cbr 500 ------- 0 0.0 2.0 89 89
r 0.914 0 1 cbr 500 ------- 0 0.0 2.0 87 87
+ 0.914 1 2 cbr 500 ------- 0 0.0 2.0 87 87
- 0.914 1 2 cbr 500 ------- 0 0.0 2.0 87 87
+ 0.915 0 1 cbr 500 ------- 0 0.0 2.0 143 143
r 0.915813 1 2 cbr 500 ------- 0 0.0 2.0 85 85
- 0.92 0 1 cbr 500 ------- 0 0.0 2.0 90 90
+ 0.92 0 1 cbr 500 ------- 0 0.0 2.0 144 144
r 0.922 0 1 cbr 500 ------- 0 0.0 2.0 88 88
+ 0.922 1 2 cbr 500 ------- 0 0.0 2.0 88 88
- 0.922 1 2 cbr 500 ------- 0 0.0 2.0 88 88
r 0.923813 1 2 cbr 500 ------- 0 0.0 2.0 86 86
+ 0.925 0 1 cbr 500 ------- 0 0.0 2.0 145 145
d 0.925 0 1 cbr 500 ------- 0 0.0 2.0 145 145
- 0.928 0 1 cbr 500 ------- 0 0.0 2.0 91 91
r 0.93 0 1 cbr 500 ------- 0 0.0 2.0 89 89
+ 0.93 1 2 cbr 500 ------- 0 0.0 2.0 89 89
- 0.93 1 2 cbr 500 ------- 0 0.0 2.0 89 89
+ 0.93 0 1 cbr 500 ------- 0 0.0 2.0 146 146
r 0.931813 1 2 cbr 500 ------- 0 0.0 2.0 87 87
+ 0.935 0 1 cbr 500 ------- 0 0.0 2.0 147 147
d 0.935 0 1 cbr 500 ------- 0 0.0 2.0 147 147
- 0.936 0 1 cbr 500 ------- 0 0.0 2.0 92 92
r 0.938 0 1 cbr 500 ------- 0 0.0 2.0 90 90
+ 0.938 1 2 cbr 500 ------- 0 0.0 2.0 90 90
- 0.938 1 2 cbr 500 ------- 0 0.0 2.0 90 90
r 0.939813 1 2 cbr 500 ------- 0 0.0 2.0 88 88
+ 0.94 0 1 cbr 500 ------- 0 0.0 2.0 148 148
- 0.944 0 1 cbr 500 ------- 0 0.0 2.0 93 93
+ 0.945 0 1 cbr 500 ------- 0 0.0 2.0 149 149
r 0.946 0 1 cbr 500 ------- 0 0.0 2.0 91 91
+ 0.946 1 2 cbr 500 ------- 0 0.0 2.0 91 91
- 0.946 1 2 cbr 500 ------- 0 0.0 2.0 91 91
r 0.947813 1 2 cbr 500 ------- 0 0.0 2.0 89 89
+ 0.95 0 1 cbr 500 ------- 0 0.0 2.0 150 150
d 0.95 0 1 cbr 500 ------- 0 0.0 2.0 150 150
- 0.952 0 1 cbr 500 ------- 0 0.0 2.0 94 94
r 0.954 0 1 cbr 500 ------- 0 0.0 2.0 92 92
+ 0.954 1 2 cbr 500 ------- 0 0.0 2.0 92 92
- 0.954 1 2 cbr 500 ------- 0 0.0 2.0 92 92
+ 0.955 0 1 cbr 500 ------- 0 0.0 2.0 151 151
r 0.955813 1 2 cbr 500 ------- 0 0.0 2.0 90 90
- 0.96 0 1 cbr 500 ------- 0 0.0 2.0 95 95
+ 0.96 0 1 cbr 500 ------- 0 0.0 2.0 152 152
r 0.962 0 1 cbr 500 ------- 0 0.0 2.0 93 93
+ 0.962 1 2 cbr 500 ------- 0 0.0 2.0 93 93
- 0.962 1 2 cbr 500 ------- 0 0.0 2.0 93 93
r 0.963813 1 2 cbr 500 ------- 0 0.0 2.0 91 91
+ 0.965 0 1 cbr 500 ------- 0 0.0 2.0 153 153
d 0.965 0 1 cbr 500 ------- 0 0.0 2.0 153 153
- 0.968 0 1 cbr 500 ------- 0 0.0 2.0 96 96
r 0.97 0 1 cbr 500 ------- 0 0.0 2.0 94 94
+ 0.97 1 2 cbr 500 ------- 0 0.0 2.0 94 94
- 0.97 1 2 cbr 500 ------- 0 0.0 2.0 94 94
+ 0.97 0 1 cbr 500 ------- 0 0.0 2.0 154 154
r 0.971813 1 2 cbr 500 ------- 0 0.0 2.0 92 92
+ 0.975 0 1 cbr 500 ------- 0 0.0 2.0 155 155
d 0.975 0 1 cbr 500 ------- 0 0.0 2.0 155 155
- 0.976 0 1 cbr 500 ------- 0 0.0 2.0 97 97
r 0.978 0 1 cbr 500 ------- 0 0.0 2.0 95 95
+ 0.978 1 2 cbr 500 ------- 0 0.0 2.0 95 95
- 0.978 1 2 cbr 500 ------- 0 0.0 2.0 95 95
r 0.979813 1 2 cbr 500 ------- 0 0.0 2.0 93 93
+ 0.98 0 1 cbr 500 ------- 0 0.0 2.0 156 156
- 0.984 0 1 cbr 500 ------- 0 0.0 2.0 98 98
+ 0.985 0 1 cbr 500 ------- 0 0.0 2.0 157 157
r 0.986 0 1 cbr 500 ------- 0 0.0 2.0 96 96
+ 0.986 1 2 cbr 500 ------- 0 0.0 2.0 96 96
- 0.986 1 2 cbr 500 ------- 0 0.0 2.0 96 96
r 0.987813 1 2 cbr 500 ------- 0 0.0 2.0 94 94
+ 0.99 0 1 cbr 500 ------- 0 0.0 2.0 158 158
d 0.99 0 1 cbr 500 ------- 0 0.0 2.0 158 158
- 0.992 0 1 cbr 500 ------- 0 0.0 2.0 99 99
r 0.994 0 1 cbr 500 ------- 0 0.0 2.0 97 97
+ 0.994 1 2 cbr 500 ------- 0 0.0 2.0 97 97
- 0.994 1 2 cbr 500 ------- 0 0.0 2.0 97 97
+ 0.995 0 1 cbr 500 ------- 0 0.0 2.0 159 159
r 0.995813 1 2 cbr 500 ------- 0 0.0 2.0 95 95
- 1 0 1 cbr 500 ------- 0 0.0 2.0 100 100
+ 1 0 1 cbr 500 ------- 0 0.0 2.0 160 160
r 1.002 0 1 cbr 500 ------- 0 0.0 2.0 98 98
+ 1.002 1 2 cbr 500 ------- 0 0.0 2.0 98 98
- 1.002 1 2 cbr 500 ------- 0 0.0 2.0 98 98
r 1.003813 1 2 cbr 500 ------- 0 0.0 2.0 96 96
+ 1.005 0 1 cbr 500 ------- 0 0.0 2.0 161 161
d 1.005 0 1 cbr 500 ------- 0 0.0 2.0 161 161
- 1.008 0 1 cbr 500 ------- 0 0.0 2.0 101 101
+ 1.01 0 1 cbr 500 ------- 0 0.0 2.0 162 162
r 1.01 0 1 cbr 500 ------- 0 0.0 2.0 99 99
+ 1.01 1 2 cbr 500 ------- 0 0.0 2.0 99 99
- 1.01 1 2 cbr 500 ------- 0 0.0 2.0 99 99
r 1.011813 1 2 cbr 500 ------- 0 0.0 2.0 97 97
+ 1.015 0 1 cbr 500 ------- 0 0.0 2.0 163 163
d 1.015 0 1 cbr 500 ------- 0 0.0 2.0 163 163
- 1.016 0 1 cbr 500 ------- 0 0.0 2.0 102 102